# Compiler to be used
CC = gcc

# Source files
SRC = main.c school.c

# Object files
OBJ = $(SRC:.c=.o)

# Name of executable to be created
NAME = school

# Compiler flags
CFLAGS = -Wall -Werror -Wextra -pedantic

.PHONY: all clean oclean fclean re

# Linking objects files to create executables
all: m.h $(OBJ)
	$(CC) $(OBJ) -o $(NAME)

# Deletes all Emacs and Vim temporary files along with the executable
clean:
	$(RM) *~ $(NAME)

# Deletes the object files
oclean:
	$(RM) $(OBJ)

# Deletes all Emacs and Vim temporary files, the executable, and the object files
fclean: clean oclean

# Forces recompilation of all source files
re: oclean all
